<?xml version="1.0" encoding="UTF-8"?>

<!-- generated on Sat Nov 30 21:07:38 2019 by Eclipse SUMO Version 1.3.1
<configuration xmlns:xsi="http://www.w3.org/2001/XMLSchema-instance" xsi:noNamespaceSchemaLocation="http://sumo.dlr.de/xsd/sumoConfiguration.xsd">

    <input>
        <net-file value="SUMO_Sirene\net.net.xml"/>
        <route-files value="SUMO_Sirene\sirene_pt.rou.xml,SUMO_Sirene\sirene.motorcycle.trips.xml,SUMO_Sirene\sirene.bicycle.trips.xml"/>
        <additional-files value="SUMO_Sirene\sirene_pois.add.xml,SUMO_Sirene\sirene_stops.add.xml,SUMO_Sirene\sirene_routes_lkw.xml,SUMO_Sirene\sirene_routes_pkw.xml,SUMO_Sirene\sirene_flows_lkw.xml,SUMO_Sirene\sirene_flows_pkw.xml,SUMO_Sirene\sirene_add_edgedata.xml,SUMO_Sirene\vtypes.add.xml"/>
    </input>

    <output>
        <tripinfo-output value="walabi_sirene\tripinfos99_routedist1.xml"/>
    </output>

    <processing>
        <ignore-route-errors value="true"/>
    </processing>

    <routing>
        <device.rerouting.adaptation-steps value="180"/>
    </routing>

    <report>
        <verbose value="true"/>
        <duration-log.statistics value="true"/>
        <no-step-log value="true"/>
    </report>

    <traci_server>
        <remote-port value="49719"/>
    </traci_server>

    <random_number>
        <random value="true"/>
    </random_number>

    <gui_only>
        <gui-settings-file value="SUMO_Sirene\sirene.view.xml"/>
    </gui_only>

</configuration>
-->

<meandata xmlns:xsi="http://www.w3.org/2001/XMLSchema-instance" xsi:noNamespaceSchemaLocation="http://sumo.dlr.de/xsd/meandata_file.xsd">
    <interval begin="0.00" end="3600.00" id="sirene_edgedata">
        <edge id="-10237438#0" sampledSeconds="243.63" traveltime="3.03" overlapTraveltime="4.64" density="3.58" occupancy="0.66" waitingTime="0.00" speed="5.13" departed="98" arrived="0" entered="0" left="98" laneChangedFrom="0" laneChangedTo="0"/>
        <edge id="-103270688#4" sampledSeconds="9817.28" traveltime="54.71" overlapTraveltime="56.10" density="13.09" occupancy="3.22" waitingTime="3193.00" speed="3.80" departed="0" arrived="0" entered="175" left="175" laneChangedFrom="0" laneChangedTo="0"/>
        <edge id="-103270688#6" sampledSeconds="2398.10" traveltime="22.99" overlapTraveltime="23.74" density="3.99" occupancy="0.97" waitingTime="0.00" speed="7.25" departed="0" arrived="0" entered="101" left="101" laneChangedFrom="0" laneChangedTo="0"/>
        <edge id="-103270688#7" sampledSeconds="52.04" traveltime="11.89" overlapTraveltime="13.01" density="0.16" occupancy="0.04" waitingTime="0.00" speed="7.42" departed="0" arrived="0" entered="4" left="4" laneChangedFrom="0" laneChangedTo="0"/>
        <edge id="-103495995#0" sampledSeconds="147.86" traveltime="23.64" overlapTraveltime="25.31" density="0.49" occupancy="0.23" waitingTime="63.00" speed="3.67" departed="0" arrived="0" entered="6" left="6" laneChangedFrom="0" laneChangedTo="0"/>
        <edge id="-10517312#6" sampledSeconds="598.10" traveltime="2.40" overlapTraveltime="2.78" density="5.41" occupancy="1.19" waitingTime="0.00" speed="12.82" departed="0" arrived="221" entered="222" left="0" laneChangedFrom="0" laneChangedTo="0"/>
        <edge id="-10522156#7" sampledSeconds="529.41" traveltime="6.13" overlapTraveltime="6.79" density="3.18" occupancy="0.74" waitingTime="0.00" speed="7.54" departed="0" arrived="81" entered="81" left="0" laneChangedFrom="0" laneChangedTo="0"/>
        <edge id="-10522157#4" sampledSeconds="37.86" traveltime="37.75" overlapTraveltime="38.26" density="0.05" occupancy="0.01" waitingTime="0.00" speed="5.76" departed="1" arrived="0" entered="0" left="1" laneChangedFrom="0" laneChangedTo="0"/>
        <edge id="-10522159#1" sampledSeconds="0.00" departed="0" arrived="0" entered="0" left="0" laneChangedFrom="0" laneChangedTo="0"/>
        <edge id="-10522174#2" sampledSeconds="0.00" departed="0" arrived="0" entered="0" left="0" laneChangedFrom="0" laneChangedTo="0"/>
        <edge id="-10526071#1" sampledSeconds="207.39" traveltime="6.66" overlapTraveltime="7.06" density="0.73" occupancy="0.17" waitingTime="0.00" speed="11.89" departed="0" arrived="30" entered="30" left="0" laneChangedFrom="0" laneChangedTo="0"/>
        <edge id="-10529294#0" sampledSeconds="1469.57" traveltime="7.71" overlapTraveltime="8.44" density="7.41" occupancy="1.68" waitingTime="5.00" speed="7.11" departed="0" arrived="0" entered="174" left="174" laneChangedFrom="0" laneChangedTo="0"/>
        <edge id="-10529294#1" sampledSeconds="357.87" traveltime="6.31" overlapTraveltime="7.01" density="2.26" occupancy="0.50" waitingTime="0.00" speed="6.96" departed="0" arrived="0" entered="51" left="51" laneChangedFrom="0" laneChangedTo="0"/>
        <edge id="-106531538#3" sampledSeconds="600.03" traveltime="16.36" overlapTraveltime="17.10" density="2.95" occupancy="0.60" waitingTime="261.00" speed="3.56" departed="1" arrived="1" entered="34" left="34" laneChangedFrom="0" laneChangedTo="0"/>
        <edge id="-106531538#7" sampledSeconds="1381.73" traveltime="20.19" overlapTraveltime="20.93" density="2.61" occupancy="0.60" waitingTime="0.00" speed="7.25" departed="0" arrived="0" entered="66" left="66" laneChangedFrom="0" laneChangedTo="0"/>
        <edge id="-106531538#8" sampledSeconds="849.84" traveltime="10.61" overlapTraveltime="11.33" density="3.14" occupancy="0.72" waitingTime="3.00" speed="7.06" departed="0" arrived="0" entered="75" left="75" laneChangedFrom="0" laneChangedTo="0"/>
        <edge id="-106531541#10" sampledSeconds="2816.03" traveltime="16.45" overlapTraveltime="17.17" density="6.46" occupancy="1.55" waitingTime="0.00" speed="7.35" departed="0" arrived="0" entered="164" left="164" laneChangedFrom="0" laneChangedTo="0"/>
        <edge id="-106531541#5" sampledSeconds="1568.41" traveltime="8.34" overlapTraveltime="9.07" density="7.27" occupancy="1.68" waitingTime="0.00" speed="7.16" departed="0" arrived="0" entered="173" left="173" laneChangedFrom="0" laneChangedTo="0"/>
        <edge id="-106531542#1" sampledSeconds="458.89" traveltime="12.30" overlapTraveltime="13.49" density="1.59" occupancy="0.40" waitingTime="32.00" speed="6.35" departed="0" arrived="0" entered="34" left="34" laneChangedFrom="0" laneChangedTo="0"/>
        <edge id="-106531547#0" sampledSeconds="606.45" traveltime="22.50" overlapTraveltime="23.74" density="2.92" occupancy="0.65" waitingTime="216.00" speed="2.73" departed="64" arrived="0" entered="0" left="64" laneChangedFrom="0" laneChangedTo="0"/>
        <edge id="-106698930#0" sampledSeconds="587.81" traveltime="12.53" overlapTraveltime="13.55" density="2.71" occupancy="1.28" waitingTime="0.00" speed="4.82" departed="0" arrived="45" entered="45" left="0" laneChangedFrom="0" laneChangedTo="0"/>
        <edge id="-106931173#1" sampledSeconds="3644.71" traveltime="29.82" overlapTraveltime="30.31" density="12.07" occupancy="5.66" waitingTime="473.00" speed="2.93" departed="387" arrived="0" entered="0" left="387" laneChangedFrom="0" laneChangedTo="0"/>
        <edge id="-161838918" sampledSeconds="162.57" traveltime="3.94" overlapTraveltime="6.37" density="2.24" occupancy="0.39" waitingTime="4.00" speed="3.95" departed="70" arrived="0" entered="0" left="70" laneChangedFrom="0" laneChangedTo="0"/>
        <edge id="-167286681#1" sampledSeconds="98.06" traveltime="8.91" overlapTraveltime="11.72" density="0.38" occupancy="0.08" waitingTime="0.00" speed="6.48" departed="26" arrived="0" entered="0" left="26" laneChangedFrom="0" laneChangedTo="0"/>
        <edge id="-167920423#2" sampledSeconds="761.30" traveltime="17.10" overlapTraveltime="18.13" density="2.69" occupancy="0.65" waitingTime="373.00" speed="4.61" departed="0" arrived="0" entered="42" left="42" laneChangedFrom="0" laneChangedTo="0"/>
        <edge id="-167920423#4" sampledSeconds="933.78" traveltime="7.55" overlapTraveltime="8.34" density="3.97" occupancy="0.91" waitingTime="90.00" speed="8.43" departed="0" arrived="1" entered="112" left="111" laneChangedFrom="0" laneChangedTo="0"/>
        <edge id="-167920423#7" sampledSeconds="1636.98" traveltime="18.84" overlapTraveltime="19.49" density="2.01" occupancy="0.48" waitingTime="0.00" speed="11.87" departed="0" arrived="0" entered="84" left="84" laneChangedFrom="0" laneChangedTo="0"/>
        <edge id="-207177331#0" sampledSeconds="1057.23" traveltime="7.20" overlapTraveltime="9.79" density="5.06" occupancy="0.67" waitingTime="0.00" speed="6.43" departed="306" arrived="0" entered="0" left="306" laneChangedFrom="0" laneChangedTo="0"/>
        <edge id="-217362175#1" sampledSeconds="391.72" traveltime="12.63" overlapTraveltime="14.37" density="1.64" occupancy="0.35" waitingTime="14.00" speed="4.96" departed="88" arrived="0" entered="0" left="88" laneChangedFrom="0" laneChangedTo="0"/>
        <edge id="-217362176#1" sampledSeconds="962.07" traveltime="23.36" overlapTraveltime="24.04" density="0.94" occupancy="0.22" waitingTime="0.00" speed="12.08" departed="1" arrived="0" entered="40" left="40" laneChangedFrom="0" laneChangedTo="0"/>
        <edge id="-217362176#3" sampledSeconds="24.22" traveltime="11.53" overlapTraveltime="15.89" density="0.06" occupancy="0.01" waitingTime="0.00" speed="6.96" departed="8" arrived="0" entered="0" left="8" laneChangedFrom="0" laneChangedTo="0"/>
        <edge id="-218253719#3" sampledSeconds="10594.60" traveltime="40.45" overlapTraveltime="41.11" density="10.15" occupancy="2.49" waitingTime="0.00" speed="7.17" departed="0" arrived="257" entered="261" left="1" laneChangedFrom="0" laneChangedTo="0"/>
        <edge id="-218253720#1" sampledSeconds="27.23" traveltime="26.93" overlapTraveltime="27.23" density="0.04" occupancy="0.00" waitingTime="0.00" speed="6.30" departed="0" arrived="0" entered="1" left="1" laneChangedFrom="0" laneChangedTo="0"/>
        <edge id="-218253720#3" sampledSeconds="0.00" departed="0" arrived="0" entered="0" left="0" laneChangedFrom="0" laneChangedTo="0"/>
        <edge id="-22559297#1" sampledSeconds="13123.58" traveltime="93.12" overlapTraveltime="91.44" density="34.88" occupancy="8.73" waitingTime="7423.00" speed="1.20" departed="290" arrived="0" entered="0" left="290" laneChangedFrom="0" laneChangedTo="0"/>
        <edge id="-23094097#1" sampledSeconds="0.00" departed="0" arrived="0" entered="0" left="0" laneChangedFrom="0" laneChangedTo="0"/>
        <edge id="-23423492#0" sampledSeconds="0.00" departed="0" arrived="0" entered="0" left="0" laneChangedFrom="0" laneChangedTo="0"/>
        <edge id="-23713549#0" sampledSeconds="44.14" traveltime="3.73" overlapTraveltime="6.01" density="0.39" occupancy="0.07" waitingTime="0.00" speed="6.12" departed="16" arrived="0" entered="0" left="16" laneChangedFrom="0" laneChangedTo="0"/>
        <edge id="-238863539#3" sampledSeconds="5241.29" traveltime="33.50" overlapTraveltime="34.71" density="8.88" occupancy="2.16" waitingTime="2498.00" speed="4.87" departed="0" arrived="0" entered="151" left="151" laneChangedFrom="0" laneChangedTo="0"/>
        <edge id="-25270811#10" sampledSeconds="302.48" traveltime="7.06" overlapTraveltime="7.76" density="1.69" occupancy="0.37" waitingTime="0.00" speed="7.04" departed="0" arrived="1" entered="39" left="38" laneChangedFrom="0" laneChangedTo="0"/>
        <edge id="-25270811#6" sampledSeconds="184.07" traveltime="4.94" overlapTraveltime="5.59" density="1.38" occupancy="0.30" waitingTime="0.00" speed="7.52" departed="0" arrived="34" entered="34" left="0" laneChangedFrom="0" laneChangedTo="0"/>
        <edge id="-25270811#7" sampledSeconds="57.04" traveltime="3.46" overlapTraveltime="4.39" density="0.69" occupancy="0.14" waitingTime="0.00" speed="6.35" departed="0" arrived="0" entered="13" left="13" laneChangedFrom="0" laneChangedTo="0"/>
        <edge id="-25270811#8" sampledSeconds="191.35" traveltime="12.92" overlapTraveltime="13.67" density="0.59" occupancy="0.13" waitingTime="0.00" speed="6.97" departed="0" arrived="0" entered="14" left="14" laneChangedFrom="0" laneChangedTo="0"/>
        <edge id="-25584897#3" sampledSeconds="32.31" traveltime="31.59" overlapTraveltime="32.69" density="0.05" occupancy="0.01" waitingTime="11.00" speed="5.93" departed="1" arrived="0" entered="0" left="1" laneChangedFrom="0" laneChangedTo="0"/>
        <edge id="-276159044" sampledSeconds="850.35" traveltime="4.98" overlapTraveltime="5.71" density="7.50" occupancy="1.55" waitingTime="3.00" speed="6.39" departed="0" arrived="0" entered="149" left="149" laneChangedFrom="0" laneChangedTo="0"/>
        <edge id="-276159045#1" sampledSeconds="605.80" traveltime="7.77" overlapTraveltime="8.53" density="2.32" occupancy="0.52" waitingTime="8.00" speed="9.09" departed="0" arrived="0" entered="71" left="71" laneChangedFrom="0" laneChangedTo="0"/>
        <edge id="-291313154" sampledSeconds="9094.48" traveltime="12.81" overlapTraveltime="13.26" density="21.05" occupancy="3.60" waitingTime="1610.00" speed="9.45" departed="0" arrived="692" entered="693" left="0" laneChangedFrom="0" laneChangedTo="0"/>
        <edge id="-30426827" sampledSeconds="147.65" traveltime="5.36" overlapTraveltime="5.56" density="0.72" occupancy="0.15" waitingTime="6.00" speed="11.10" departed="112" arrived="0" entered="0" left="112" laneChangedFrom="0" laneChangedTo="0"/>
        <edge id="-30426838#3" sampledSeconds="9192.45" traveltime="29.95" overlapTraveltime="31.01" density="16.37" occupancy="4.15" waitingTime="2989.00" speed="5.20" departed="0" arrived="4" entered="297" left="290" laneChangedFrom="0" laneChangedTo="0"/>
        <edge id="-30426838#4" sampledSeconds="735.62" traveltime="1.94" overlapTraveltime="2.48" density="10.78" occupancy="2.17" waitingTime="44.78" speed="9.73" departed="0" arrived="0" entered="297" left="297" laneChangedFrom="0" laneChangedTo="0"/>
        <edge id="-32020609#0" sampledSeconds="14007.72" traveltime="23.11" overlapTraveltime="23.75" density="50.28" occupancy="8.07" waitingTime="5876.00" speed="3.47" departed="0" arrived="0" entered="591" left="587" laneChangedFrom="0" laneChangedTo="0"/>
        <edge id="-32020609#1" sampledSeconds="5702.04" traveltime="58.33" overlapTraveltime="57.21" density="7.37" occupancy="1.19" waitingTime="2161.00" speed="3.84" departed="434" arrived="0" entered="0" left="434" laneChangedFrom="0" laneChangedTo="0"/>
        <edge id="-323437935#1" sampledSeconds="189.45" traveltime="11.91" overlapTraveltime="12.63" density="0.62" occupancy="0.14" waitingTime="0.00" speed="7.05" departed="0" arrived="0" entered="15" left="15" laneChangedFrom="0" laneChangedTo="0"/>
        <edge id="-326114792#1" sampledSeconds="227.89" traveltime="3.76" overlapTraveltime="4.18" density="1.59" occupancy="0.35" waitingTime="0.00" speed="10.69" departed="0" arrived="56" entered="56" left="0" laneChangedFrom="0" laneChangedTo="0"/>
        <edge id="-33077282" sampledSeconds="4041.40" traveltime="19.65" overlapTraveltime="20.49" density="8.39" occupancy="2.01" waitingTime="2.00" speed="6.78" departed="0" arrived="0" entered="198" left="195" laneChangedFrom="0" laneChangedTo="0"/>
        <edge id="-336013553#3" sampledSeconds="1247.98" traveltime="59.46" overlapTraveltime="58.77" density="2.05" occupancy="0.47" waitingTime="555.00" speed="2.96" departed="177" arrived="0" entered="0" left="177" laneChangedFrom="0" laneChangedTo="0"/>
        <edge id="-355309951#3" sampledSeconds="1333.47" traveltime="24.43" overlapTraveltime="25.15" density="2.10" occupancy="0.35" waitingTime="0.00" speed="7.23" departed="1" arrived="0" entered="52" left="53" laneChangedFrom="0" laneChangedTo="0"/>
        <edge id="-367772443#2" sampledSeconds="1936.75" traveltime="21.49" overlapTraveltime="22.26" density="3.52" occupancy="0.91" waitingTime="66.00" speed="7.11" departed="0" arrived="3" entered="88" left="84" laneChangedFrom="0" laneChangedTo="0"/>
        <edge id="-375862675#2" sampledSeconds="977.24" traveltime="10.90" overlapTraveltime="11.92" density="5.17" occupancy="1.17" waitingTime="188.00" speed="4.81" departed="0" arrived="0" entered="82" left="82" laneChangedFrom="0" laneChangedTo="0"/>
        <edge id="-375862676#4" sampledSeconds="4990.27" traveltime="28.32" overlapTraveltime="29.35" density="7.08" occupancy="1.72" waitingTime="106.00" speed="6.84" departed="0" arrived="0" entered="170" left="170" laneChangedFrom="0" laneChangedTo="0"/>
        <edge id="-375862680#4" sampledSeconds="361.03" traveltime="10.73" overlapTraveltime="11.65" density="1.32" occupancy="0.30" waitingTime="7.00" speed="6.92" departed="0" arrived="0" entered="31" left="31" laneChangedFrom="0" laneChangedTo="0"/>
        <edge id="-375862680#7" sampledSeconds="1425.13" traveltime="10.49" overlapTraveltime="11.22" density="5.23" occupancy="1.22" waitingTime="0.00" speed="7.19" departed="0" arrived="0" entered="127" left="127" laneChangedFrom="0" laneChangedTo="0"/>
        <edge id="-37608940#0" sampledSeconds="1187.39" traveltime="9.43" overlapTraveltime="10.17" density="5.00" occupancy="0.77" waitingTime="0.00" speed="6.98" departed="0" arrived="0" entered="117" left="116" laneChangedFrom="17" laneChangedTo="17"/>
        <edge id="-37852651" sampledSeconds="584.61" traveltime="21.05" overlapTraveltime="23.80" density="1.72" occupancy="0.37" waitingTime="47.00" speed="4.19" departed="134" arrived="0" entered="0" left="134" laneChangedFrom="0" laneChangedTo="0"/>
        <edge id="-38075402#0" sampledSeconds="472.22" traveltime="6.83" overlapTraveltime="7.48" density="2.55" occupancy="0.58" waitingTime="0.00" speed="7.54" departed="0" arrived="65" entered="65" left="0" laneChangedFrom="0" laneChangedTo="0"/>
        <edge id="-38075402#2" sampledSeconds="1762.69" traveltime="26.34" overlapTraveltime="27.12" density="2.52" occupancy="0.61" waitingTime="0.00" speed="7.35" departed="0" arrived="0" entered="65" left="65" laneChangedFrom="0" laneChangedTo="0"/>
        <edge id="-38160532#1" sampledSeconds="20.38" traveltime="21.57" overlapTraveltime="22.96" density="0.07" occupancy="0.01" waitingTime="5.00" speed="4.01" departed="5" arrived="0" entered="0" left="5" laneChangedFrom="0" laneChangedTo="0"/>
        <edge id="-384709617#1" sampledSeconds="3896.27" traveltime="11.91" overlapTraveltime="12.57" density="12.43" occupancy="2.97" waitingTime="0.00" speed="7.33" departed="0" arrived="316" entered="316" left="0" laneChangedFrom="0" laneChangedTo="0"/>
        <edge id="-39458868#1" sampledSeconds="953.53" traveltime="4.00" overlapTraveltime="4.89" density="8.72" occupancy="1.87" waitingTime="26.00" speed="7.23" departed="0" arrived="1" entered="195" left="194" laneChangedFrom="0" laneChangedTo="0"/>
        <edge id="-39458868#3" sampledSeconds="1137.33" traveltime="2.89" overlapTraveltime="3.65" density="15.63" occupancy="3.21" waitingTime="5.00" speed="6.91" departed="0" arrived="0" entered="312" left="312" laneChangedFrom="0" laneChangedTo="0"/>
        <edge id="-39536741#1" sampledSeconds="10554.12" traveltime="28.00" overlapTraveltime="28.73" density="21.66" occupancy="3.50" waitingTime="4616.00" speed="4.88" departed="0" arrived="0" entered="368" left="367" laneChangedFrom="0" laneChangedTo="0"/>
        <edge id="-413718443#6" sampledSeconds="4107.32" traveltime="12.76" overlapTraveltime="13.61" density="12.63" occupancy="1.98" waitingTime="26.00" speed="7.01" departed="1" arrived="0" entered="301" left="301" laneChangedFrom="0" laneChangedTo="0"/>
        <edge id="-4314516#4" sampledSeconds="581.67" traveltime="7.13" overlapTraveltime="7.80" density="3.06" occupancy="0.71" waitingTime="0.00" speed="7.41" departed="0" arrived="77" entered="77" left="0" laneChangedFrom="0" laneChangedTo="0"/>
        <edge id="-4314516#7" sampledSeconds="1554.98" traveltime="17.26" overlapTraveltime="18.08" density="3.55" occupancy="0.83" waitingTime="1.00" speed="7.01" departed="0" arrived="0" entered="86" left="86" laneChangedFrom="0" laneChangedTo="0"/>
        <edge id="-4314616#3" sampledSeconds="16.45" traveltime="8.04" overlapTraveltime="8.23" density="0.05" occupancy="0.01" waitingTime="0.00" speed="11.62" departed="0" arrived="1" entered="2" left="1" laneChangedFrom="0" laneChangedTo="0"/>
        <edge id="-4314616#4" sampledSeconds="320.53" traveltime="15.34" overlapTraveltime="16.03" density="0.48" occupancy="0.11" waitingTime="0.00" speed="11.75" departed="0" arrived="0" entered="20" left="20" laneChangedFrom="0" laneChangedTo="0"/>
        <edge id="-4729377#2" sampledSeconds="456.90" traveltime="10.87" overlapTraveltime="11.72" density="1.62" occupancy="0.38" waitingTime="0.00" speed="7.09" departed="0" arrived="0" entered="39" left="39" laneChangedFrom="0" laneChangedTo="0"/>
        <edge id="-483465545#0" sampledSeconds="1417.64" traveltime="11.58" overlapTraveltime="12.33" density="4.67" occupancy="1.12" waitingTime="0.00" speed="7.25" departed="0" arrived="0" entered="115" left="115" laneChangedFrom="0" laneChangedTo="0"/>
        <edge id="-483465545#3" sampledSeconds="1794.40" traveltime="14.26" overlapTraveltime="15.05" density="4.87" occupancy="1.14" waitingTime="11.00" speed="7.13" departed="0" arrived="0" entered="120" left="119" laneChangedFrom="0" laneChangedTo="0"/>
        <edge id="-483465546" sampledSeconds="5064.96" traveltime="28.89" overlapTraveltime="30.14" density="15.76" occupancy="3.87" waitingTime="2239.00" speed="3.13" departed="0" arrived="0" entered="168" left="168" laneChangedFrom="0" laneChangedTo="0"/>
        <edge id="-484593099#2" sampledSeconds="5.09" traveltime="4.70" overlapTraveltime="5.09" density="0.05" occupancy="0.00" waitingTime="0.00" speed="6.33" departed="0" arrived="0" entered="1" left="1" laneChangedFrom="0" laneChangedTo="0"/>
        <edge id="-5083224#3" sampledSeconds="939.56" traveltime="16.31" overlapTraveltime="17.40" density="2.56" occupancy="0.59" waitingTime="78.00" speed="6.13" departed="1" arrived="0" entered="53" left="54" laneChangedFrom="0" laneChangedTo="0"/>
        <edge id="-5083224#6" sampledSeconds="1066.91" traveltime="12.61" overlapTraveltime="13.51" density="3.26" occupancy="0.76" waitingTime="5.00" speed="7.10" departed="0" arrived="0" entered="79" left="79" laneChangedFrom="0" laneChangedTo="0"/>
        <edge id="-5088355#4" sampledSeconds="104.50" traveltime="61.99" overlapTraveltime="93.33" density="0.08" occupancy="0.01" waitingTime="0.00" speed="3.83" departed="48" arrived="0" entered="0" left="48" laneChangedFrom="0" laneChangedTo="0"/>
        <edge id="-5096637#1" sampledSeconds="1631.32" traveltime="8.55" overlapTraveltime="9.43" density="9.18" occupancy="2.11" waitingTime="133.00" speed="5.76" departed="0" arrived="0" entered="173" left="173" laneChangedFrom="0" laneChangedTo="0"/>
        <edge id="-5134912#3" sampledSeconds="559.88" traveltime="36.22" overlapTraveltime="37.44" density="1.29" occupancy="0.27" waitingTime="120.00" speed="3.36" departed="94" arrived="0" entered="0" left="94" laneChangedFrom="0" laneChangedTo="0"/>
        <edge id="-5139607#1" sampledSeconds="1338.92" traveltime="33.90" overlapTraveltime="34.54" density="1.43" occupancy="0.35" waitingTime="0.00" speed="7.65" departed="0" arrived="39" entered="39" left="0" laneChangedFrom="0" laneChangedTo="0"/>
        <edge id="-5140733#1" sampledSeconds="1099.84" traveltime="11.57" overlapTraveltime="12.36" density="3.65" occupancy="0.86" waitingTime="1.00" speed="7.17" departed="0" arrived="0" entered="89" left="89" laneChangedFrom="0" laneChangedTo="0"/>
        <edge id="-5140733#3" sampledSeconds="2082.39" traveltime="19.60" overlapTraveltime="20.42" density="4.13" occupancy="1.00" waitingTime="28.00" speed="7.10" departed="0" arrived="0" entered="102" left="101" laneChangedFrom="0" laneChangedTo="0"/>
        <edge id="-5140765#2" sampledSeconds="1435.07" traveltime="12.52" overlapTraveltime="13.41" density="4.57" occupancy="1.08" waitingTime="7.00" speed="6.87" departed="0" arrived="0" entered="107" left="107" laneChangedFrom="0" laneChangedTo="0"/>
        <edge id="-525353018#1" sampledSeconds="1118.74" traveltime="3.96" overlapTraveltime="4.63" density="10.55" occupancy="2.33" waitingTime="0.00" speed="7.45" departed="0" arrived="255" entered="255" left="0" laneChangedFrom="0" laneChangedTo="0"/>
        <edge id="-526422259#1" sampledSeconds="2642.78" traveltime="14.37" overlapTraveltime="15.45" density="7.40" occupancy="1.17" waitingTime="14.00" speed="6.74" departed="0" arrived="0" entered="171" left="171" laneChangedFrom="0" laneChangedTo="0"/>
        <edge id="-529421172#3" sampledSeconds="11.80" traveltime="5.71" overlapTraveltime="5.90" density="0.05" occupancy="0.00" waitingTime="0.00" speed="11.47" departed="0" arrived="1" entered="2" left="1" laneChangedFrom="0" laneChangedTo="0"/>
        <edge id="-538699600" sampledSeconds="969.48" traveltime="5.37" overlapTraveltime="6.03" density="6.75" occupancy="1.03" waitingTime="0.00" speed="7.45" departed="0" arrived="167" entered="167" left="0" laneChangedFrom="0" laneChangedTo="0"/>
        <edge id="-577566285" sampledSeconds="3507.38" traveltime="7.25" overlapTraveltime="7.70" density="11.88" occupancy="1.58" waitingTime="220.00" speed="11.37" departed="0" arrived="464" entered="464" left="0" laneChangedFrom="23" laneChangedTo="23"/>
        <edge id="-67628973#8" sampledSeconds="7272.97" traveltime="35.07" overlapTraveltime="35.86" density="15.30" occupancy="3.74" waitingTime="3992.00" speed="3.82" departed="0" arrived="0" entered="205" left="202" laneChangedFrom="0" laneChangedTo="0"/>
        <edge id="-70395918#2" sampledSeconds="52.60" traveltime="12.79" overlapTraveltime="14.70" density="0.26" occupancy="0.08" waitingTime="0.00" speed="4.05" departed="12" arrived="0" entered="0" left="12" laneChangedFrom="0" laneChangedTo="0"/>
        <edge id="-70545096#5" sampledSeconds="1064.07" traveltime="2.64" overlapTraveltime="3.03" density="8.92" occupancy="0.96" waitingTime="0.00" speed="12.57" departed="0" arrived="2" entered="351" left="349" laneChangedFrom="0" laneChangedTo="0"/>
        <edge id="-7820081#2" sampledSeconds="1027.69" traveltime="14.79" overlapTraveltime="15.57" density="2.61" occupancy="0.62" waitingTime="0.00" speed="7.35" departed="0" arrived="0" entered="66" left="66" laneChangedFrom="0" laneChangedTo="0"/>
        <edge id="-7820081#5" sampledSeconds="322.42" traveltime="8.07" overlapTraveltime="8.96" density="1.77" occupancy="0.39" waitingTime="23.00" speed="6.20" departed="1" arrived="0" entered="35" left="36" laneChangedFrom="0" laneChangedTo="0"/>
        <edge id="-7823653#2" sampledSeconds="1346.45" traveltime="15.15" overlapTraveltime="15.90" density="3.43" occupancy="0.82" waitingTime="0.00" speed="7.18" departed="0" arrived="0" entered="85" left="84" laneChangedFrom="0" laneChangedTo="0"/>
        <edge id="-7823653#6" sampledSeconds="642.90" traveltime="28.48" overlapTraveltime="29.22" density="0.84" occupancy="0.20" waitingTime="0.00" speed="7.44" departed="0" arrived="0" entered="22" left="22" laneChangedFrom="0" laneChangedTo="0"/>
        <edge id="-7975381#1" sampledSeconds="1000.11" traveltime="11.98" overlapTraveltime="13.90" density="4.39" occupancy="0.97" waitingTime="37.00" speed="4.91" departed="209" arrived="0" entered="0" left="209" laneChangedFrom="0" laneChangedTo="0"/>
        <edge id="-7975383" sampledSeconds="1119.16" traveltime="36.93" overlapTraveltime="39.79" density="1.72" occupancy="0.38" waitingTime="139.00" speed="4.65" departed="168" arrived="0" entered="0" left="168" laneChangedFrom="0" laneChangedTo="0"/>
        <edge id="-7975388#0" sampledSeconds="11.48" traveltime="11.19" overlapTraveltime="11.48" density="0.04" occupancy="0.00" waitingTime="0.00" speed="6.67" departed="0" arrived="1" entered="1" left="0" laneChangedFrom="0" laneChangedTo="0"/>
        <edge id="-7975390#4" sampledSeconds="3150.94" traveltime="36.50" overlapTraveltime="37.22" density="3.25" occupancy="0.79" waitingTime="0.00" speed="7.37" departed="0" arrived="0" entered="87" left="83" laneChangedFrom="0" laneChangedTo="0"/>
        <edge id="-7975390#9" sampledSeconds="269.48" traveltime="6.63" overlapTraveltime="7.49" density="1.94" occupancy="0.43" waitingTime="29.00" speed="5.81" departed="0" arrived="0" entered="36" left="36" laneChangedFrom="0" laneChangedTo="0"/>
        <edge id="-7975391#4" sampledSeconds="8131.20" traveltime="37.78" overlapTraveltime="38.54" density="8.38" occupancy="2.05" waitingTime="10.00" speed="7.12" departed="0" arrived="0" entered="211" left="211" laneChangedFrom="0" laneChangedTo="0"/>
        <edge id="-7975391#6" sampledSeconds="1652.06" traveltime="11.41" overlapTraveltime="12.33" density="6.38" occupancy="1.50" waitingTime="93.00" speed="6.24" departed="0" arrived="0" entered="134" left="134" laneChangedFrom="0" laneChangedTo="0"/>
        <edge id="-7975405#4" sampledSeconds="1629.00" traveltime="17.35" overlapTraveltime="18.08" density="3.58" occupancy="0.83" waitingTime="0.00" speed="7.27" departed="0" arrived="0" entered="91" left="90" laneChangedFrom="0" laneChangedTo="0"/>
        <edge id="-7975405#7" sampledSeconds="238.95" traveltime="17.76" overlapTraveltime="18.38" density="0.54" occupancy="0.09" waitingTime="0.00" speed="6.86" departed="0" arrived="0" entered="13" left="13" laneChangedFrom="0" laneChangedTo="0"/>
        <edge id="-7975407#1" sampledSeconds="367.79" traveltime="10.32" overlapTraveltime="11.14" density="1.45" occupancy="0.31" waitingTime="2.00" speed="6.75" departed="0" arrived="0" entered="33" left="33" laneChangedFrom="0" laneChangedTo="0"/>
        <edge id="-7975407#2" sampledSeconds="60.25" traveltime="6.61" overlapTraveltime="10.09" density="0.47" occupancy="0.08" waitingTime="1.00" speed="3.93" departed="23" arrived="0" entered="0" left="23" laneChangedFrom="0" laneChangedTo="0"/>
        <edge id="-7975408#0" sampledSeconds="28.70" traveltime="8.02" overlapTraveltime="11.25" density="0.16" occupancy="0.02" waitingTime="0.00" speed="4.62" departed="9" arrived="0" entered="0" left="9" laneChangedFrom="0" laneChangedTo="0"/>